<?xml version="1.0" encoding="UTF-8"?>

<!-- generated on 2026-05-29T17:02:46.426872+01:00 by 
<Configuration xmlns:xsi="http://www.w3.org/2001/XMLSchema-instance" xsi:noNamespaceSchemaLocation="http://sumo.dlr.de/xsd/Configuration.xsd">

    <input>
        <net-file value="/home/matthias/Desktop/sumoconf/adore/ros2_workspace/src/adore_interfaces/sumo_bridge/sumo_configs/example_scenario/osm.net.xml.gz"/>
        <route-files value="/home/matthias/Desktop/sumoconf/adore/ros2_workspace/src/adore_interfaces/sumo_bridge/sumo_configs/example_scenario/osm.passenger.trips.xml"/>
        <additional-files value="/home/matthias/Desktop/sumoconf/adore/ros2_workspace/src/adore_interfaces/sumo_bridge/sumo_configs/example_scenario/output.add.xml"/>
    </input>

    <output>
        <tripinfo-output value="/home/matthias/Desktop/sumoconf/adore/ros2_workspace/src/adore_interfaces/sumo_bridge/sumo_configs/example_scenario/tripinfos.xml"/>
        <statistic-output value="/home/matthias/Desktop/sumoconf/adore/ros2_workspace/src/adore_interfaces/sumo_bridge/sumo_configs/example_scenario/stats.xml"/>
    </output>

    <time>
        <step-length value="0.050000"/>
    </time>

    <processing>
        <ignore-route-errors value="true"/>
        <tls.actuated.jam-threshold value="30"/>
    </processing>

    <routing>
        <device.rerouting.adaptation-steps value="18"/>
        <device.rerouting.adaptation-interval value="10"/>
    </routing>

    <report>
        <verbose value="true"/>
        <duration-log.statistics value="true"/>
        <no-step-log value="true"/>
    </report>

    <gui_only>
        <gui-settings-file value="/home/matthias/Desktop/sumoconf/adore/ros2_workspace/src/adore_interfaces/sumo_bridge/sumo_configs/gui_settings.xml"/>
        <start value="true"/>
    </gui_only>

</Configuration>
-->

<tripinfos xmlns:xsi="http://www.w3.org/2001/XMLSchema-instance" xsi:noNamespaceSchemaLocation="http://sumo.dlr.de/xsd/tripinfo_file.xsd">
    <tripinfo id="veh2" depart="7.10" departLane="-23952796_0" departPos="5.10" departSpeed="16.84" departDelay="0.03" arrival="48.45" arrivalLane="23911125_0" arrivalPos="92.21" arrivalSpeed="14.03" duration="41.35" routeLength="634.80" waitingTime="0.00" waitingCount="0" stopTime="0.00" timeLoss="1.65" rerouteNo="0" devices="tripinfo_veh2 routing_veh2" vType="veh_passenger" speedFactor="1.01" vaporized=""/>
    <tripinfo id="veh6" depart="21.25" departLane="-151627450#2_0" departPos="5.10" departSpeed="14.53" departDelay="0.03" arrival="86.05" arrivalLane="-151627458_0" arrivalPos="132.29" arrivalSpeed="14.47" duration="64.80" routeLength="797.54" waitingTime="0.00" waitingCount="0" stopTime="0.00" timeLoss="6.94" rerouteNo="1" devices="tripinfo_veh6 routing_veh6" vType="veh_passenger" speedFactor="1.05" vaporized=""/>
    <tripinfo id="veh17" depart="60.15" departLane="-165484801#4_0" departPos="5.10" departSpeed="13.08" departDelay="0.03" arrival="94.05" arrivalLane="151627450#0_0" arrivalPos="170.98" arrivalSpeed="13.07" duration="33.90" routeLength="415.28" waitingTime="0.00" waitingCount="0" stopTime="0.00" timeLoss="1.40" rerouteNo="0" devices="tripinfo_veh17 routing_veh17" vType="veh_passenger" speedFactor="0.94" vaporized=""/>
    <tripinfo id="veh7" depart="24.75" departLane="-23911125_0" departPos="5.10" departSpeed="12.31" departDelay="0.00" arrival="111.65" arrivalLane="172462276_0" arrivalPos="109.46" arrivalSpeed="12.28" duration="86.90" routeLength="996.56" waitingTime="0.00" waitingCount="0" stopTime="0.00" timeLoss="4.73" rerouteNo="1" devices="tripinfo_veh7 routing_veh7" vType="veh_passenger" speedFactor="0.89" vaporized=""/>
    <tripinfo id="veh26" depart="91.95" departLane="-165484801#4_0" departPos="5.10" departSpeed="12.74" departDelay="0.01" arrival="126.65" arrivalLane="151627450#0_0" arrivalPos="170.98" arrivalSpeed="12.72" duration="34.70" routeLength="415.28" waitingTime="0.00" waitingCount="0" stopTime="0.00" timeLoss="1.34" rerouteNo="0" devices="tripinfo_veh26 routing_veh26" vType="veh_passenger" speedFactor="0.92" vaporized=""/>
    <tripinfo id="veh30" depart="106.10" departLane="-165484801#4_0" departPos="5.10" departSpeed="16.37" departDelay="0.01" arrival="133.75" arrivalLane="151627450#0_0" arrivalPos="170.98" arrivalSpeed="16.32" duration="27.65" routeLength="415.28" waitingTime="0.00" waitingCount="0" stopTime="0.00" timeLoss="1.65" rerouteNo="0" devices="tripinfo_veh30 routing_veh30" vType="veh_passenger" speedFactor="1.18" vaporized=""/>
    <tripinfo id="veh4" depart="14.15" departLane="-172462276_0" departPos="5.10" departSpeed="14.31" departDelay="0.01" arrival="139.00" arrivalLane="-1348219459_0" arrivalPos="24.70" arrivalSpeed="14.29" duration="124.85" routeLength="1611.81" waitingTime="0.00" waitingCount="0" stopTime="0.00" timeLoss="8.46" rerouteNo="1" devices="tripinfo_veh4 routing_veh4" vType="veh_passenger" speedFactor="1.03" vaporized=""/>
    <tripinfo id="veh21" depart="74.30" departLane="-23911125_0" departPos="5.10" departSpeed="14.03" departDelay="0.04" arrival="144.90" arrivalLane="172462277#3_0" arrivalPos="25.28" arrivalSpeed="14.01" duration="70.60" routeLength="916.65" waitingTime="0.00" waitingCount="0" stopTime="0.00" timeLoss="4.85" rerouteNo="1" devices="tripinfo_veh21 routing_veh21" vType="veh_passenger" speedFactor="1.01" vaporized=""/>
    <tripinfo id="veh3" depart="10.65" departLane="163737385_0" departPos="5.10" departSpeed="24.06" departDelay="0.04" arrival="148.70" arrivalLane="-1348219459_0" arrivalPos="24.70" arrivalSpeed="15.02" duration="138.05" routeLength="1994.10" waitingTime="0.00" waitingCount="0" stopTime="0.00" timeLoss="8.17" rerouteNo="1" devices="tripinfo_veh3 routing_veh3" vType="veh_passenger" speedFactor="1.08" vaporized=""/>
    <tripinfo id="veh10" depart="35.40" departLane="-172462276_0" departPos="5.10" departSpeed="15.15" departDelay="0.04" arrival="152.50" arrivalLane="-151627458_0" arrivalPos="132.29" arrivalSpeed="15.10" duration="117.10" routeLength="1585.49" waitingTime="0.00" waitingCount="0" stopTime="0.00" timeLoss="8.86" rerouteNo="1" devices="tripinfo_veh10 routing_veh10" vType="veh_passenger" speedFactor="1.09" vaporized=""/>
    <tripinfo id="veh23" depart="81.35" departLane="-165484794_0" departPos="5.10" departSpeed="12.36" departDelay="0.02" arrival="155.10" arrivalLane="165484801#4_0" arrivalPos="239.54" arrivalSpeed="12.35" duration="73.75" routeLength="834.13" waitingTime="0.00" waitingCount="0" stopTime="0.00" timeLoss="3.60" rerouteNo="1" devices="tripinfo_veh23 routing_veh23" vType="veh_passenger" speedFactor="0.89" vaporized=""/>
    <tripinfo id="veh36" depart="127.30" departLane="-151627450#2_0" departPos="5.10" departSpeed="13.52" departDelay="0.00" arrival="160.30" arrivalLane="165484801#4_0" arrivalPos="239.54" arrivalSpeed="13.50" duration="33.00" routeLength="416.92" waitingTime="0.00" waitingCount="0" stopTime="0.00" timeLoss="1.38" rerouteNo="0" devices="tripinfo_veh36 routing_veh36" vType="veh_passenger" speedFactor="0.97" vaporized=""/>
    <tripinfo id="veh29" depart="102.55" departLane="163737385_0" departPos="5.10" departSpeed="20.69" departDelay="0.00" arrival="161.95" arrivalLane="172462276_0" arrivalPos="109.46" arrivalSpeed="12.88" duration="59.40" routeLength="766.22" waitingTime="0.00" waitingCount="0" stopTime="0.00" timeLoss="4.57" rerouteNo="1" devices="tripinfo_veh29 routing_veh29" vType="veh_passenger" speedFactor="0.93" vaporized=""/>
    <tripinfo id="veh0" depart="0.00" departLane="-23911125_0" departPos="5.10" departSpeed="14.72" departDelay="0.00" arrival="162.15" arrivalLane="-1348219459_0" arrivalPos="24.70" arrivalSpeed="14.68" duration="162.15" routeLength="2224.44" waitingTime="0.00" waitingCount="0" stopTime="0.00" timeLoss="8.96" rerouteNo="1" devices="tripinfo_veh0 routing_veh0" vType="veh_passenger" speedFactor="1.06" vaporized=""/>
    <tripinfo id="veh25" depart="88.45" departLane="-165484801#4_0" departPos="5.10" departSpeed="12.12" departDelay="0.04" arrival="170.00" arrivalLane="-1348219459_0" arrivalPos="24.70" arrivalSpeed="12.12" duration="81.55" routeLength="901.10" waitingTime="0.00" waitingCount="0" stopTime="0.00" timeLoss="4.53" rerouteNo="1" devices="tripinfo_veh25 routing_veh25" vType="veh_passenger" speedFactor="0.87" vaporized=""/>
    <tripinfo id="veh19" depart="67.20" departLane="-172462276_0" departPos="5.10" departSpeed="16.09" departDelay="0.01" arrival="180.70" arrivalLane="-151627458_0" arrivalPos="132.29" arrivalSpeed="16.07" duration="113.50" routeLength="1585.49" waitingTime="0.00" waitingCount="0" stopTime="0.00" timeLoss="11.58" rerouteNo="1" devices="tripinfo_veh19 routing_veh19" vType="veh_passenger" speedFactor="1.16" vaporized=""/>
    <tripinfo id="veh37" depart="131.15" departLane="492791782_0" departPos="5.10" departSpeed="13.89" departDelay="0.31" arrival="181.35" arrivalLane="172462276_0" arrivalPos="109.46" arrivalSpeed="16.33" duration="50.20" routeLength="728.82" waitingTime="0.00" waitingCount="0" stopTime="0.00" timeLoss="4.53" rerouteNo="1" devices="tripinfo_veh37 routing_veh37" vType="veh_passenger" speedFactor="1.18" vaporized=""/>
    <tripinfo id="veh8" depart="28.30" departLane="-165484800#1_0" departPos="5.10" departSpeed="13.03" departDelay="0.01" arrival="183.00" arrivalLane="172462277#3_0" arrivalPos="25.28" arrivalSpeed="13.02" duration="154.70" routeLength="1474.31" waitingTime="17.10" waitingCount="1" stopTime="0.00" timeLoss="38.40" rerouteNo="1" devices="tripinfo_veh8 routing_veh8" vType="veh_passenger" speedFactor="0.94" vaporized=""/>
    <tripinfo id="veh12" depart="42.45" departLane="1348219459_0" departPos="5.10" departSpeed="14.54" departDelay="0.02" arrival="184.50" arrivalLane="172462277#3_0" arrivalPos="25.28" arrivalSpeed="14.51" duration="142.05" routeLength="1514.60" waitingTime="6.35" waitingCount="1" stopTime="0.00" timeLoss="35.27" rerouteNo="1" devices="tripinfo_veh12 routing_veh12" vType="veh_passenger" speedFactor="1.05" vaporized=""/>
    <tripinfo id="veh11" depart="38.90" departLane="163737385_0" departPos="5.10" departSpeed="22.80" departDelay="0.00" arrival="184.55" arrivalLane="151627450#0_0" arrivalPos="170.98" arrivalSpeed="14.23" duration="145.65" routeLength="2049.89" waitingTime="0.00" waitingCount="0" stopTime="0.00" timeLoss="5.61" rerouteNo="1" devices="tripinfo_veh11 routing_veh11" vType="veh_passenger" speedFactor="1.03" vaporized=""/>
    <tripinfo id="veh14" depart="49.55" departLane="1348219459_0" departPos="5.10" departSpeed="13.77" departDelay="0.04" arrival="187.70" arrivalLane="172462277#3_0" arrivalPos="25.28" arrivalSpeed="13.71" duration="138.15" routeLength="1514.60" waitingTime="3.55" waitingCount="1" stopTime="0.00" timeLoss="25.33" rerouteNo="1" devices="tripinfo_veh14 routing_veh14" vType="veh_passenger" speedFactor="0.99" vaporized=""/>
    <tripinfo id="veh5" depart="17.70" departLane="-165484794_0" departPos="5.10" departSpeed="11.54" departDelay="0.02" arrival="188.90" arrivalLane="172462276_0" arrivalPos="109.46" arrivalSpeed="11.49" duration="171.20" routeLength="1499.59" waitingTime="22.05" waitingCount="2" stopTime="0.00" timeLoss="37.13" rerouteNo="1" devices="tripinfo_veh5 routing_veh5" vType="veh_passenger" speedFactor="0.83" vaporized=""/>
    <tripinfo id="veh15" depart="53.05" departLane="1348219459_0" departPos="5.10" departSpeed="12.87" departDelay="0.01" arrival="190.30" arrivalLane="172462277#3_0" arrivalPos="25.28" arrivalSpeed="12.86" duration="137.25" routeLength="1514.60" waitingTime="0.00" waitingCount="0" stopTime="0.00" timeLoss="16.62" rerouteNo="1" devices="tripinfo_veh15 routing_veh15" vType="veh_passenger" speedFactor="0.93" vaporized=""/>
    <tripinfo id="veh38" depart="134.40" departLane="163737385_0" departPos="5.10" departSpeed="24.49" departDelay="0.02" arrival="203.30" arrivalLane="23952796_0" arrivalPos="534.04" arrivalSpeed="18.32" duration="68.90" routeLength="1100.19" waitingTime="0.00" waitingCount="0" stopTime="0.00" timeLoss="7.06" rerouteNo="1" devices="tripinfo_veh38 routing_veh38" vType="veh_passenger" speedFactor="1.10" vaporized=""/>
    <tripinfo id="veh33" depart="117.20" departLane="500532444_0" departPos="5.10" departSpeed="12.44" departDelay="0.50" arrival="204.25" arrivalLane="172462276_0" arrivalPos="109.46" arrivalSpeed="16.22" duration="87.05" routeLength="1197.11" waitingTime="0.00" waitingCount="0" stopTime="0.00" timeLoss="12.31" rerouteNo="1" devices="tripinfo_veh33 routing_veh33" vType="veh_passenger" speedFactor="1.17" vaporized=""/>
    <tripinfo id="veh35" depart="123.80" departLane="1348219459_0" departPos="5.10" departSpeed="14.16" departDelay="0.03" arrival="204.55" arrivalLane="165484801#4_0" arrivalPos="239.54" arrivalSpeed="14.12" duration="80.75" routeLength="929.05" waitingTime="2.00" waitingCount="2" stopTime="0.00" timeLoss="12.99" rerouteNo="1" devices="tripinfo_veh35 routing_veh35" vType="veh_passenger" speedFactor="1.02" vaporized=""/>
