<?xml version="1.0" encoding="UTF-8"?>

<!-- generated on 2026-05-29T14:45:52.965517+01:00 by 
<Configuration xmlns:xsi="http://www.w3.org/2001/XMLSchema-instance" xsi:noNamespaceSchemaLocation="http://sumo.dlr.de/xsd/Configuration.xsd">

    <input>
        <net-file value="/home/akoerner/repos/csa/adore_revert/adore/ros2_workspace/src/adore_interfaces/sumo_bridge/sumo_configs/example_scenario/osm.net.xml.gz"/>
        <route-files value="/home/akoerner/repos/csa/adore_revert/adore/ros2_workspace/src/adore_interfaces/sumo_bridge/sumo_configs/example_scenario/osm.passenger.trips.xml"/>
        <additional-files value="/home/akoerner/repos/csa/adore_revert/adore/ros2_workspace/src/adore_interfaces/sumo_bridge/sumo_configs/example_scenario/osm.poly.xml.gz,/home/akoerner/repos/csa/adore_revert/adore/ros2_workspace/src/adore_interfaces/sumo_bridge/sumo_configs/example_scenario/output.add.xml"/>
    </input>

    <output>
        <tripinfo-output value="/home/akoerner/repos/csa/adore_revert/adore/ros2_workspace/src/adore_interfaces/sumo_bridge/sumo_configs/example_scenario/tripinfos.xml"/>
        <statistic-output value="/home/akoerner/repos/csa/adore_revert/adore/ros2_workspace/src/adore_interfaces/sumo_bridge/sumo_configs/example_scenario/stats.xml"/>
    </output>

    <time>
        <step-length value="0.050000"/>
    </time>

    <processing>
        <ignore-route-errors value="true"/>
        <tls.actuated.jam-threshold value="30"/>
    </processing>

    <routing>
        <device.rerouting.adaptation-steps value="18"/>
        <device.rerouting.adaptation-interval value="10"/>
    </routing>

    <report>
        <verbose value="true"/>
        <duration-log.statistics value="true"/>
        <no-step-log value="true"/>
    </report>

    <gui_only>
        <gui-settings-file value="/home/akoerner/repos/csa/adore_revert/adore/ros2_workspace/src/adore_interfaces/sumo_bridge/sumo_configs/gui_settings.xml"/>
        <start value="true"/>
    </gui_only>

</Configuration>
-->

<tripinfos xmlns:xsi="http://www.w3.org/2001/XMLSchema-instance" xsi:noNamespaceSchemaLocation="http://sumo.dlr.de/xsd/tripinfo_file.xsd">
